file 73736880 1651460560                                        
version 2
run General-0-20220501-23:01:35-7144
attr configname General
attr datetime 20220501-23:01:35
attr experiment General
attr inifile omnetpp.ini
attr iterationvars ""
attr iterationvarsf ""
attr measurement ""
attr network SourceSink
attr processid 7144
attr repetition 0
attr replication #0
attr resultdir results
attr runnumber 0
attr seedset 0

vector 0 SourceSink.source "Workloads frequency" ETV
attr interpolationmode none
0	455 875067 1 661575 0 0.651452808669 32768 1 1 32768 32768
0	875522 897383 661611 1323443 0.651487562361 1.306846704988 32768 1 1 32768 32768
0	1772905 913780 1323457 1999785 1.306847192995 1.96798991773 32768 1 1 32768 32768
0	2686685 913957 1999808 2669830 1.968017735781 2.626791472309 32768 1 1 32768 32768
0	3600642 913881 2669842 3341342 2.626796458559 3.279004705564 32768 1 1 32768 32768
0	4514523 913845 3341373 4008806 3.279074951896 3.930255287958 32768 1 1 32768 32768
0	5428368 913895 4008809 4678717 3.930287786377 4.5895735801 32768 1 1 32768 32768
0	6342263 913922 4678721 5349423 4.589578255383 5.246414415076 32768 1 1 32768 32768
0	7256185 913927 5349459 6021188 5.24646136841 5.904740246518 32768 1 1 32768 32768
0	8170112 913899 6021229 6690508 5.904754766489 6.561294631334 32768 1 1 32768 32768
0	9084011 913852 6690512 7359164 6.561295444522 7.21850690003 32768 1 1 32768 32768
0	9997863 913813 7359182 8031337 7.218515149094 7.872054183554 32768 1 1 32768 32768
0	10911676 913877 8031340 8699155 7.872055922051 8.521693999494 32768 1 1 32768 32768
0	11825553 913904 8699174 9368939 8.521718337743 9.179316929347 32768 1 1 32768 32768
0	12739457 915745 9368943 10038051 9.179320060534 9.836128253695 32768 1 1 32768 32768
0	13655202 971179 10038080 10710403 9.836149176832 10.486615284636 32768 1 1 32768 32768
0	14626381 979375 10710425 11378178 10.486667887046 11.136885288166 32768 1 1 32768 32768
0	15605756 979360 11378194 12049920 11.136917471813 11.794084714772 32768 1 1 32768 32768
0	16585116 979464 12049934 12717595 11.79409286092 12.452792593647 32768 1 1 32768 32768
0	17564580 979313 12717599 13391287 12.452795455592 13.108508073749 32768 1 1 32768 32768
0	18543893 979401 13391295 14062050 13.108530227539 13.764041977129 32768 1 1 32768 32768
0	19523294 979408 14062085 14732137 13.764090146831 14.420521490643 32768 1 1 32768 32768
0	20502702 979419 14732173 15401571 14.420539447906 15.071503494905 32768 1 1 32768 32768
0	21482121 979361 15401583 16066207 15.071511085434 15.720953011381 32768 1 1 32768 32768
0	22461482 979359 16066215 16739872 15.72096358104 16.375021180329 32768 1 1 32768 32768
0	23440841 979434 16739880 17407076 16.375031593415 17.030480518395 32768 1 1 32768 32768
0	24420275 979462 17407098 18080828 17.030487625362 17.692361336834 32768 1 1 32768 32768
0	25399737 979438 18080846 18746211 17.692379335548 18.347195407535 32768 1 1 32768 32768
0	26379175 979429 18746214 19421749 18.347204453502 19.000988145946 32768 1 1 32768 32768
0	27358604 979415 19421767 20091521 19.000998973901 19.657648233879 32768 1 1 32768 32768
0	28338019 979333 20091534 20758508 19.6576953895 20.308606349897 32768 1 1 32768 32768
0	29317352 979520 20758512 21431160 20.308636852467 20.960268929859 32768 1 1 32768 32768
0	30296872 979518 21431186 22100887 20.960312710864 21.615901857594 32768 1 1 32768 32768
0	31276390 979422 22100890 22770478 21.61591075998 22.276376307519 32768 1 1 32768 32768
0	32255812 979322 22770490 23438993 22.276384537943 22.926666823637 32768 1 1 32768 32768
0	33235134 979455 23438996 24109744 22.926671545261 23.582958143068 32768 1 1 32768 32768
0	34214589 979407 24109752 24780777 23.58296416152 24.235958278529 32768 1 1 32768 32768
0	35193996 979303 24780793 25447209 24.235976971538 24.893536002471 32768 1 1 32768 32768
0	36173299 979349 25447223 26118016 24.893536386404 25.550576403527 32768 1 1 32768 32768
0	37152648 979504 26118024 26791762 25.550586057012 26.205017352356 32768 1 1 32768 32768
0	38132152 979433 26791772 27459481 26.205022323256 26.860299122199 32768 1 1 32768 32768
0	39111585 979297 27459490 28130508 26.860301136967 27.512025899286 32768 1 1 32768 32768
0	40090882 979328 28130515 28800420 27.512064195335 28.1659376083 32768 1 1 32768 32768
0	41070210 979446 28800423 29468445 28.165944952539 28.822598722481 32768 1 1 32768 32768
0	42049656 979366 29468455 30139353 28.822600740789 29.479547076847 32768 1 1 32768 32768
0	43029022 979364 30139360 30809537 29.479566369271 30.143002008911 32768 1 1 32768 32768
0	44008386 979381 30809558 31480855 30.143020904734 30.801868333933 32768 1 1 32768 32768
0	44987767 979403 31480875 32149442 30.801894766714 31.45627230055 32768 1 1 32768 32768
0	45967170 979398 32149446 32819894 31.456279106391 32.109307016266 32768 1 1 32768 32768
0	46946568 979370 32819897 33488126 32.109315475766 32.765419059395 32768 1 1 32768 32768
0	47925938 979291 33488158 34160144 32.765443824609 33.417035714611 32768 1 1 32768 32768
0	48905229 979440 34160164 34830923 33.417058443127 34.074743905353 32768 1 1 32768 32768
0	49884669 979443 34830935 35497075 34.074764245026 34.722934389803 32768 1 1 32768 32768
0	50864112 979510 35497083 36169428 34.722939234117 35.377809426672 32768 1 1 32768 32768
0	51843622 979400 36169438 36839527 35.377842602377 36.034254351929 32768 1 1 32768 32768
0	52823022 979417 36839531 37511447 36.034271008885 36.690612098901 32768 1 1 32768 32768
0	53802439 979391 37511467 38180436 36.690626298918 37.346631270813 32768 1 1 32768 32768
0	54781830 979362 38180478 38851343 37.346714687428 37.995147113331 32768 1 1 32768 32768
0	55761192 979483 38851384 39520067 37.995230475166 38.643816368861 32768 1 1 32768 32768
0	56740675 979438 39520081 40190317 38.64382357372 39.296800593437 32768 1 1 32768 32768
0	57720113 979334 40190320 40861854 39.296807001291 39.95113093809 32768 1 1 32768 32768
0	58699447 979460 40861890 41530108 39.951144056609 40.604798472595 32768 1 1 32768 32768
0	59678907 979351 41530122 42202507 40.604802629686 41.257076147364 32768 1 1 32768 32768
0	60658258 979329 42202521 42866837 41.257079496378 41.910033178789 32768 1 1 32768 32768
0	61637587 979297 42866847 43538287 41.910058337259 42.565307583446 32768 1 1 32768 32768
0	62616884 979393 43538295 44206321 42.565321290205 43.219875930376 32768 1 1 32768 32768
0	63596277 979402 44206335 44876767 43.219880224092 43.869579477566 32768 1 1 32768 32768
0	64575679 979365 44876770 45549706 43.869579970422 44.53233555073 32768 1 1 32768 32768
0	65555044 979429 45549710 46218823 44.532343154876 45.186574706828 32768 1 1 32768 32768
0	66534473 979338 46218839 46888511 45.186594123565 45.840708177408 32768 1 1 32768 32768
0	67513811 979257 46888515 47562346 45.840717399622 46.50005230407 32768 1 1 32768 32768
0	68493068 979554 47562354 48225883 46.500068771392 47.154071537093 32768 1 1 32768 32768
0	69472622 979430 48225917 48901634 47.154141075328 47.805178013168 32768 1 1 32768 32768
0	70452052 979398 48901658 49569871 47.805221537059 48.453216080926 32768 1 1 32768 32768
0	71431450 979467 49569875 50240948 48.453228422565 49.109382567882 32768 1 1 32768 32768
0	72410917 979469 50240952 50908902 49.109395453189 49.764578554153 32768 1 1 32768 32768
0	73390386 346492 50908938 51146345 49.764646342299 49.99999122341 11590 1 1 11590 11590

